
#(C) 2017 by FIZ Karlsruhe - Leibniz Institute for Information Infrastructure.  All rights reserved.
data_15586-ICSD
_database_code_ICSD 15586
_audit_creation_date 1980-01-01
_audit_update_record 2012-08-01
_chemical_name_systematic 'Calcium tungstate'
_chemical_formula_structural 'Ca (W O4)'
_chemical_formula_sum 'Ca1 O4 W1'
_chemical_name_structure_type Scheelite-CaWO4
_chemical_name_mineral Scheelite
_exptl_crystal_density_diffrn 6.12
_publ_section_title
'X-ray diffraction refinement of the calcium tungstate structure'
loop_
_citation_id
_citation_journal_full
_citation_year
_citation_journal_volume
_citation_page_first
_citation_page_last
_citation_journal_id_ASTM
primary 'Journal of Chemical Physics' 1964 40 501 504 JCPSA6
loop_
_publ_author_name
'Zalkin, A.'
'Templeton, D.H.'
_cell_length_a 5.243(2)
_cell_length_b 5.243
_cell_length_c 11.376(3)
_cell_angle_alpha 90.
_cell_angle_beta 90.
_cell_angle_gamma 90.
_cell_volume 312.72
_cell_formula_units_Z 4
_symmetry_space_group_name_H-M 'I 41/a Z'
_symmetry_Int_Tables_number 88
_refine_ls_R_factor_all 0.061
loop_
_symmetry_equiv_pos_site_id
_symmetry_equiv_pos_as_xyz
1 '-y+3/4, x+3/4, -z+3/4'
2 'y+1/4, -x+3/4, -z+3/4'
3 'x, y+1/2, -z'
4 '-x, -y, -z'
5 'y+1/4, -x+1/4, z+1/4'
6 '-y+3/4, x+1/4, z+1/4'
7 '-x, -y+1/2, z'
8 'x, y, z'
9 '-y+1/4, x+1/4, -z+1/4'
10 'y+3/4, -x+1/4, -z+1/4'
11 'x+1/2, y, -z+1/2'
12 '-x+1/2, -y+1/2, -z+1/2'
13 'y+3/4, -x+3/4, z+3/4'
14 '-y+1/4, x+3/4, z+3/4'
15 '-x+1/2, -y, z+1/2'
16 'x+1/2, y+1/2, z+1/2'
loop_
_atom_type_symbol
_atom_type_oxidation_number
O2- -2
Ca2+ 2
W6+ 6
loop_
_atom_site_label
_atom_site_type_symbol
_atom_site_symmetry_multiplicity
_atom_site_Wyckoff_symbol
_atom_site_fract_x
_atom_site_fract_y
_atom_site_fract_z
_atom_site_B_iso_or_equiv
_atom_site_occupancy
_atom_site_attached_hydrogens
O1 O2- 16 f 0.1504(13) 0.0085(14) 0.2111(6) . 1. 0
Ca1 Ca2+ 4 b 0 0.25 0.625 . 1. 0
W1 W6+ 4 a 0 0.25 0.125 . 1. 0
loop_
_atom_site_aniso_label
_atom_site_aniso_type_symbol
_atom_site_aniso_beta_11
_atom_site_aniso_beta_22
_atom_site_aniso_beta_33
_atom_site_aniso_beta_12
_atom_site_aniso_beta_13
_atom_site_aniso_beta_23
O1 O2- .0100(16) .0115(16) .0016(3) .0016(13) .0004(6) .0008(6)
Ca1 Ca2+ .0071(4) .0071 .0011(1) 0 0 0
W1 W6+ .0036(1) .0036 .00095(3) 0 0 0
#End of TTdata_15586-ICSD