
#(C) 2018 by FIZ Karlsruhe - Leibniz Institute for Information Infrastructure.  All rights reserved.
data_291355-ICSD
_database_code_ICSD 291355
_audit_creation_date 2015-08-01
_chemical_name_systematic 'Barium silicate'
_chemical_formula_structural 'Ba2 Si O4'
_chemical_formula_sum 'Ba2 O4 Si1'
_chemical_name_structure_type K2SO4(beta)
_exptl_crystal_density_diffrn 5.47
_cell_measurement_temperature 300.
_publ_section_title

;
Average and local structure, Debye temperature, and structural rigidity in
some oxide compounds related to phosphor hosts
;
loop_
_citation_id
_citation_journal_full
_citation_year
_citation_journal_volume
_citation_page_first
_citation_page_last
_citation_journal_id_ASTM
primary 'ACS Applied Materials & Interfaces' 2015 7 7264 7272 AAMICK
loop_
_publ_author_name
'Denault, Kristin A.'
'Brgoch, Jakoah'
'Kloss, Simon D.'
'Gaultois, Michael W.'
'Siewenie, Joan'
'Page, Katharine'
'Seshadri, Ram'
_cell_length_a 5.810117(7)
_cell_length_b 10.21694(1)
_cell_length_c 7.505903(8)
_cell_angle_alpha 90.
_cell_angle_beta 90.
_cell_angle_gamma 90.
_cell_volume 445.56
_cell_formula_units_Z 4
_symmetry_space_group_name_H-M 'P m c n'
_symmetry_Int_Tables_number 62
_refine_ls_R_factor_all 0.062
loop_
_symmetry_equiv_pos_site_id
_symmetry_equiv_pos_as_xyz
1 'x, -y+1/2, z+1/2'
2 '-x+1/2, y, z'
3 'x+1/2, y+1/2, -z+1/2'
4 '-x, -y, -z'
5 '-x, y+1/2, -z+1/2'
6 'x+1/2, -y, -z'
7 '-x+1/2, -y+1/2, z+1/2'
8 'x, y, z'
loop_
_atom_type_symbol
_atom_type_oxidation_number
Ba2+ 2
Si4+ 4
O2- -2
loop_
_atom_site_label
_atom_site_type_symbol
_atom_site_symmetry_multiplicity
_atom_site_Wyckoff_symbol
_atom_site_fract_x
_atom_site_fract_y
_atom_site_fract_z
_atom_site_B_iso_or_equiv
_atom_site_occupancy
_atom_site_attached_hydrogens
Ba1 Ba2+ 4 c 0.25 0.08627(3) 0.16092(5) 0.0069(2) 1. 0
Ba2 Ba2+ 4 c 0.25 0.69427(3) -0.00842(4) 0.0057(2) 1. 0
Si1 Si4+ 4 c 0.25 0.4199(1) 0.2278(1) 0.0010(2) 1. 0
O1 O2- 4 c 0.25 0.4169(1) 0.0109(2) 0.0105(2) 1. 0
O2 O2- 4 c 0.25 0.5704(1) 0.3073(2) 0.0101(3) 1. 0
O3 O2- 8 d 0.0191(2) 0.34885(9) 0.3069(1) 0.0119(2) 1. 0
#End of TTdata_291355-ICSD