
#(C) 2018 by FIZ Karlsruhe - Leibniz Institute for Information Infrastructure.  All rights reserved.
data_34228-ICSD
_database_code_ICSD 34228
_audit_creation_date 1980-01-01
_audit_update_record 1998-06-26
_chemical_name_systematic 'Pentacalcium tris(phosphate) fluoride'
_chemical_formula_structural 'Ca5 (P O4)3 F'
_chemical_formula_sum 'Ca5 F1 O12 P3'
_chemical_name_structure_type Apatite#-(HE,P63/m)
_chemical_name_mineral Apatite-(CaF)
_exptl_crystal_density_diffrn 3.2
_publ_section_title 'Location of Nd dopant in Fluorapatite, Ca5 (P O4)3 F:Nd'
loop_
_citation_id
_citation_journal_full
_citation_year
_citation_journal_volume
_citation_page_first
_citation_page_last
_citation_journal_id_ASTM
primary 'Journal of Applied Crystallography' 1973 6 26 31 JACGAR
loop_
_publ_author_name
'Mackie, P.E.'
'Young, R.A.'
_cell_length_a 9.3666(12)
_cell_length_b 9.3666(12)
_cell_length_c 6.8839(10)
_cell_angle_alpha 90.
_cell_angle_beta 90.
_cell_angle_gamma 120.
_cell_volume 523.03
_cell_formula_units_Z 2
_symmetry_space_group_name_H-M 'P 63/m'
_symmetry_Int_Tables_number 176
_refine_ls_R_factor_all 0.016
loop_
_symmetry_equiv_pos_site_id
_symmetry_equiv_pos_as_xyz
1 '-x+y, -x, -z+1/2'
2 '-y, x-y, -z+1/2'
3 'x, y, -z+1/2'
4 'x-y, x, -z'
5 'y, -x+y, -z'
6 '-x, -y, -z'
7 'x-y, x, z+1/2'
8 'y, -x+y, z+1/2'
9 '-x, -y, z+1/2'
10 '-x+y, -x, z'
11 '-y, x-y, z'
12 'x, y, z'
loop_
_atom_type_symbol
_atom_type_oxidation_number
O2- -2
P5+ 5
Ca2+ 2
F1- -1
loop_
_atom_site_label
_atom_site_type_symbol
_atom_site_symmetry_multiplicity
_atom_site_Wyckoff_symbol
_atom_site_fract_x
_atom_site_fract_y
_atom_site_fract_z
_atom_site_B_iso_or_equiv
_atom_site_occupancy
_atom_site_attached_hydrogens
O1 O2- 6 h 0.3262(1) 0.4843(1) 0.25 . 1. 0
O2 O2- 6 h 0.5880(1) 0.4668(1) 0.25 . 1. 0
O3 O2- 12 i 0.3416(1) 0.2568(1) 0.0704(1) . 1. 0
P1 P5+ 6 h 0.3981 0.3688 0.25 . 0.994 0
Ca1 Ca2+ 4 f 0.3333 0.6667 0.0011 . 0.975 0
Ca2 Ca2+ 6 h 0.2416 0.9929 0.25 . 0.975 0
F1 F1- 2 a 0 0 0.25 . 0.942 0
loop_
_atom_site_aniso_label
_atom_site_aniso_type_symbol
_atom_site_aniso_beta_11
_atom_site_aniso_beta_22
_atom_site_aniso_beta_33
_atom_site_aniso_beta_12
_atom_site_aniso_beta_13
_atom_site_aniso_beta_23
O1 O2- 0.0035(1) 0.0026 0.0041 0 0 0
O2 O2- 0.0016 0.0024(1) 0.0070(1) 0.0007 0 0
O3 O2- 0.0061(1) 0.0031 0.0031(1) 0.0029 -.0021 -.0014
P1 P5+ 0.0014 0.0012 0.0017 0.0007 0 0
Ca1 Ca2+ 0.003 0.003 0.002 0.0015 0 0
Ca2 Ca2+ 0.0022 0.002 0.0027 0.0011 0 0
F1 F1- 0.0025(1) 0.0025(1) 0.0129(3) 0.0012 0 0
#End of TTdata_34228-ICSD