
#(C) 2018 by FIZ Karlsruhe - Leibniz Institute for Information Infrastructure.  All rights reserved.
data_166080-ICSD
_database_code_ICSD 166080
_audit_creation_date 2010-08-01
_chemical_name_systematic 'Calcium diferrate(III)'
_chemical_formula_structural 'Ca (Fe2 O4)'
_chemical_formula_sum 'Ca1 Fe2 O4'
_chemical_name_structure_type CaFe2O4
_exptl_crystal_density_diffrn 6.71
_cell_measurement_pressure 69600000.
_publ_section_title 'Fe(3+) spin transition in Ca Fe2 O4 at high pressure'
loop_
_citation_id
_citation_journal_full
_citation_year
_citation_journal_volume
_citation_page_first
_citation_page_last
_citation_journal_id_ASTM
primary 'American Mineralogist' 2010 95 200 203 AMMIAY
loop_
_publ_author_name
'Merlini, M.'
'Hanfland, M.'
'Gemmi, M.'
'Huotari, S.'
'Simonelli, L.'
'Strobel, P.'
_cell_length_a 9.4634(9)
_cell_length_b 8.1708(5)
_cell_length_c 2.7619(11)
_cell_angle_alpha 90.
_cell_angle_beta 90.
_cell_angle_gamma 90.
_cell_volume 213.56
_cell_formula_units_Z 4
_symmetry_space_group_name_H-M 'P b n m'
_symmetry_Int_Tables_number 62
_refine_ls_R_factor_all 0.051
loop_
_symmetry_equiv_pos_site_id
_symmetry_equiv_pos_as_xyz
1 '-x+1/2, y+1/2, z'
2 'x, y, -z+1/2'
3 'x+1/2, -y+1/2, z+1/2'
4 '-x, -y, -z'
5 'x+1/2, -y+1/2, -z'
6 '-x, -y, z+1/2'
7 '-x+1/2, y+1/2, -z+1/2'
8 'x, y, z'
loop_
_atom_type_symbol
_atom_type_oxidation_number
Fe3+ 3
Ca2+ 2
O2- -2
loop_
_atom_site_label
_atom_site_type_symbol
_atom_site_symmetry_multiplicity
_atom_site_Wyckoff_symbol
_atom_site_fract_x
_atom_site_fract_y
_atom_site_fract_z
_atom_site_B_iso_or_equiv
_atom_site_occupancy
_atom_site_attached_hydrogens
Fe1 Fe3+ 4 c 0.11242(14) 0.06357(14) 0.25 . 1. 0
Fe2 Fe3+ 4 c 0.60262(14) 0.08183(12) 0.25 . 1. 0
Ca1 Ca2+ 4 c 0.34082(19) 0.2430(2) 0.25 . 1. 0
O1 O2- 4 c 0.6575(6) 0.2947(6) 0.25 . 1. 0
O2 O2- 4 c 0.9795(6) 0.3770(6) 0.25 . 1. 0
O3 O2- 4 c 0.2152(6) 0.4782(6) 0.25 . 1. 0
O4 O2- 4 c 0.9224(7) 0.0821(7) 0.25 . 1. 0
#End of TTdata_166080-ICSD