
#(C) 2017 by FIZ Karlsruhe - Leibniz Institute for Information Infrastructure.  All rights reserved.
data_4353-ICSD
_database_code_ICSD 4353
_audit_creation_date 1980-01-01
_audit_update_record 1998-06-26
_chemical_name_systematic 'Iron silicate'
_chemical_formula_structural 'Fe2 Si O4'
_chemical_formula_sum 'Fe2 O4 Si1'
_chemical_name_structure_type Olivine-Mg2SiO4
_chemical_name_mineral Fayalite
_exptl_crystal_density_diffrn 4.41
_publ_section_title 'High temperature crystal chemistry of fayalite'
loop_
_citation_id
_citation_journal_full
_citation_year
_citation_journal_volume
_citation_page_first
_citation_page_last
_citation_journal_id_ASTM
primary 'American Mineralogist' 1975 60 1092 1097 AMMIAY
loop_
_publ_author_name
'Smyth, J.R.'
_cell_length_a 4.818(2)
_cell_length_b 10.471(3)
_cell_length_c 6.086(2)
_cell_angle_alpha 90.
_cell_angle_beta 90.
_cell_angle_gamma 90.
_cell_volume 307.03
_cell_formula_units_Z 4
_symmetry_space_group_name_H-M 'P b n m'
_symmetry_Int_Tables_number 62
_refine_ls_R_factor_all 0.047
loop_
_symmetry_equiv_pos_site_id
_symmetry_equiv_pos_as_xyz
1 '-x+1/2, y+1/2, z'
2 'x, y, -z+1/2'
3 'x+1/2, -y+1/2, z+1/2'
4 '-x, -y, -z'
5 'x+1/2, -y+1/2, -z'
6 '-x, -y, z+1/2'
7 '-x+1/2, y+1/2, -z+1/2'
8 'x, y, z'
loop_
_atom_type_symbol
_atom_type_oxidation_number
Fe2+ 2
Si4+ 4
O2- -2
loop_
_atom_site_label
_atom_site_type_symbol
_atom_site_symmetry_multiplicity
_atom_site_Wyckoff_symbol
_atom_site_fract_x
_atom_site_fract_y
_atom_site_fract_z
_atom_site_B_iso_or_equiv
_atom_site_occupancy
_atom_site_attached_hydrogens
Fe1 Fe2+ 4 a 0 0 0 . 1. 0
Fe2 Fe2+ 4 c 0.9853(2) 0.2800(1) 0.25 . 1. 0
Si1 Si4+ 4 c 0.4292(4) 0.0975(2) 0.25 . 1. 0
O1 O2- 4 c 0.7687(10) 0.0928(5) 0.25 . 1. 0
O2 O2- 4 c 0.2076(9) 0.4529(5) 0.25 . 1. 0
O3 O2- 8 d 0.2884(7) 0.1637(3) 0.0383(6) . 1. 0
loop_
_atom_site_aniso_label
_atom_site_aniso_type_symbol
_atom_site_aniso_beta_11
_atom_site_aniso_beta_22
_atom_site_aniso_beta_33
_atom_site_aniso_beta_12
_atom_site_aniso_beta_13
_atom_site_aniso_beta_23
Fe1 Fe2+ 0.0035(3) 0.0019(1) 0.0035(2) 0.0002(2) -.0006(3) -.0004(1)
Fe2 Fe2+ 0.0045(3) 0.0013(1) 0.0034(2) 0.0(1) 0 0
Si1 Si4+ 0.0019(6) 0.0012(2) 0.0034(5) 0.0002(3) 0 0
O1 O2- 0.0026(15) 0.0014(4) 0.0049(12) 0.0014(8) 0 0
O2 O2- 0.0006(15) 0.0018(4) 0.0029(10) -.0006(7) 0 0
O3 O2- 0.0035(12) 0.0011(3) 0.0045(9) -.0003(5) -.0005(9) 0.0007(4)
#End of TTdata_4353-ICSD