
#(C) 2018 by FIZ Karlsruhe - Leibniz Institute for Information Infrastructure.  All rights reserved.
data_2827-ICSD
_database_code_ICSD 2827
_audit_creation_date 1980-01-01
_audit_update_record 2015-08-01
_chemical_name_systematic 'Dipotassium sulfate(VI) - beta'
_chemical_formula_structural 'K2 (S O4)'
_chemical_formula_sum 'K2 O4 S1'
_chemical_name_structure_type K2SO4(beta)
_chemical_name_mineral Arcanite
_exptl_crystal_density_diffrn 2.67
_publ_section_title

;
Redetermination of the structures of potassium sulphate and potassium
chromate: the effekt of electrostatic crystal forces upon observed bond
lengths
;
loop_
_citation_id
_citation_journal_full
_citation_year
_citation_journal_volume
_citation_page_first
_citation_page_last
_citation_journal_id_ASTM
primary

;
Acta Crystallographica, Section B: Structural Crystallography and Crystal
Chemistry
; 1972 28 2845 2852 ACBCAR
loop_
_publ_author_name
'McGinnety, J.A.'
_cell_length_a 7.476(3)
_cell_length_b 10.071(4)
_cell_length_c 5.763(2)
_cell_angle_alpha 90.
_cell_angle_beta 90.
_cell_angle_gamma 90.
_cell_volume 433.9
_cell_formula_units_Z 4
_symmetry_space_group_name_H-M 'P n a m'
_symmetry_Int_Tables_number 62
_refine_ls_R_factor_all 0.051
loop_
_symmetry_equiv_pos_site_id
_symmetry_equiv_pos_as_xyz
1 'x+1/2, -y+1/2, z'
2 'x, y, -z+1/2'
3 '-x+1/2, y+1/2, z+1/2'
4 '-x, -y, -z'
5 '-x+1/2, y+1/2, -z'
6 '-x, -y, z+1/2'
7 'x+1/2, -y+1/2, -z+1/2'
8 'x, y, z'
loop_
_atom_type_symbol
_atom_type_oxidation_number
S6+ 6
K1+ 1
O2- -2
loop_
_atom_site_label
_atom_site_type_symbol
_atom_site_symmetry_multiplicity
_atom_site_Wyckoff_symbol
_atom_site_fract_x
_atom_site_fract_y
_atom_site_fract_z
_atom_site_B_iso_or_equiv
_atom_site_occupancy
_atom_site_attached_hydrogens
S1 S6+ 4 c 0.23298(15) 0.41971(10) 0.25 . 1. 0
K1 K1+ 4 c 0.67377(15) 0.41062(11) 0.25 . 1. 0
K2 K1+ 4 c -.01104(13) 0.70406(10) 0.25 . 1. 0
O1 O2- 4 c 0.0379(5) 0.4166(4) 0.25 . 1. 0
O2 O2- 4 c 0.2963(5) 0.5582(3) 0.25 . 1. 0
O3 O2- 8 d 0.3009(4) 0.3522(3) 0.0412(4) . 1. 0
loop_
_atom_site_aniso_label
_atom_site_aniso_type_symbol
_atom_site_aniso_beta_11
_atom_site_aniso_beta_22
_atom_site_aniso_beta_33
_atom_site_aniso_beta_12
_atom_site_aniso_beta_13
_atom_site_aniso_beta_23
S1 S6+ 0.00554(16) 0.00281(9) 0.00866(27) -.00003(9) 0 0
K1 K1+ 0.00820(18) 0.00472(10) 0.01273(29) -.00017(10) 0 0
K2 K1+ 0.00715(16) 0.00374(9) 0.01346(27) 0.00007(9) 0 0
O1 O2- 0.0064(5) 0.0067(4) 0.0199(12) -.0009(4) 0 0
O2 O2- 0.0114(7) 0.0029(3) 0.0163(11) -.0018(4) 0 0
O3 O2- 0.0134(5) 0.0055(2) 0.0111(6) 0.0013(3) 0.00020(5) -.0024(3)
#End of TTdata_2827-ICSD