
#(C) 2018 by FIZ Karlsruhe - Leibniz Institute for Information Infrastructure.  All rights reserved.
data_104838-ICSD
_database_code_ICSD 104838
_audit_creation_date 2004-10-01
_audit_update_record 2016-08-01
_chemical_name_systematic 'Magnesium nickel (1/2)'
_chemical_formula_structural 'Mg Ni2'
_chemical_formula_sum 'Mg1 Ni2'
_chemical_name_structure_type Laves(4H)-MgNi2
_exptl_crystal_density_diffrn 5.9
_publ_section_title
'Structural studies of stacking variants in Mg-base Friauf- Laves phases'
loop_
_citation_id
_citation_journal_full
_citation_year
_citation_journal_volume
_citation_page_first
_citation_page_last
_citation_journal_id_ASTM
primary

;
Acta Crystallographica, Section B: Structural Crystallography and Crystal
Chemistry
; 1980 36 1548 1554 ACBCAR
loop_
_publ_author_name
'Komura, Y.'
'Tokunaga, K.'
_cell_length_a 4.824(2)
_cell_length_b 4.824
_cell_length_c 15.826(10)
_cell_angle_alpha 90.
_cell_angle_beta 90.
_cell_angle_gamma 120.
_cell_volume 318.95
_cell_formula_units_Z 8
_symmetry_space_group_name_H-M 'P 63/m m c'
_symmetry_Int_Tables_number 194
_refine_ls_R_factor_all 0.053
loop_
_symmetry_equiv_pos_site_id
_symmetry_equiv_pos_as_xyz
1 'x, x-y, -z+1/2'
2 '-x+y, y, -z+1/2'
3 '-y, -x, -z+1/2'
4 '-x+y, -x, -z+1/2'
5 '-y, x-y, -z+1/2'
6 'x, y, -z+1/2'
7 '-x, -x+y, z+1/2'
8 'x-y, -y, z+1/2'
9 'y, x, z+1/2'
10 'x-y, x, z+1/2'
11 'y, -x+y, z+1/2'
12 '-x, -y, z+1/2'
13 '-x, -x+y, -z'
14 'x-y, -y, -z'
15 'y, x, -z'
16 'x-y, x, -z'
17 'y, -x+y, -z'
18 '-x, -y, -z'
19 'x, x-y, z'
20 '-x+y, y, z'
21 '-y, -x, z'
22 '-x+y, -x, z'
23 '-y, x-y, z'
24 'x, y, z'
loop_
_atom_type_symbol
_atom_type_oxidation_number
Mg0+ 0
Ni0+ 0
loop_
_atom_site_label
_atom_site_type_symbol
_atom_site_symmetry_multiplicity
_atom_site_Wyckoff_symbol
_atom_site_fract_x
_atom_site_fract_y
_atom_site_fract_z
_atom_site_B_iso_or_equiv
_atom_site_occupancy
_atom_site_attached_hydrogens
Mg1 Mg0+ 4 e 0 0 0.0940(4) 0.46(8) 1. 0
Mg2 Mg0+ 4 f 0.3333 0.6667 0.8442(4) 0.58(9) 1. 0
Ni1 Ni0+ 4 f 0.3333 0.6667 0.12514(13) 0.37(3) 1. 0
Ni2 Ni0+ 6 g 0.5 0 0 0.42(3) 1. 0
Ni3 Ni0+ 6 h 0.16429(24) 0.32858 0.25 0.41(3) 1. 0
#End of TTdata_104838-ICSD