
#(C) 2018 by FIZ Karlsruhe - Leibniz Institute for Information Infrastructure.  All rights reserved.
data_182267-ICSD
_database_code_ICSD 182267
_audit_creation_date 2012-02-01
_chemical_name_systematic 'Lead copper antimony trisulfide'
_chemical_formula_structural 'Pb Cu Sb S3'
_chemical_formula_sum 'Cu1 Pb1 S3 Sb1'
_chemical_name_mineral Bournonite
_exptl_crystal_density_diffrn 5.86
_cell_measurement_temperature 293.
_publ_section_title
'Contribution to the crystal structures of tennantite and bournonite'
loop_
_citation_id
_citation_journal_full
_citation_year
_citation_journal_volume
_citation_page_first
_citation_page_last
_citation_journal_id_ASTM
primary 'Neues Jahrbuch fuer Mineralogie. Abhandlungen (Band-Nr) (1950-)' 2010
187 159 166 NJMIAK
loop_
_publ_author_name
'Kharbish, S.'
'Giester, G.'
'Beran, A.'
_cell_length_a 7.811(1)
_cell_length_b 8.152(1)
_cell_length_c 8.704(1)
_cell_angle_alpha 90.
_cell_angle_beta 90.
_cell_angle_gamma 90.
_cell_volume 554.23
_cell_formula_units_Z 4
_symmetry_space_group_name_H-M 'P n 21 m'
_symmetry_Int_Tables_number 31
_refine_ls_R_factor_all 0.023
loop_
_symmetry_equiv_pos_site_id
_symmetry_equiv_pos_as_xyz
1 '-x, y+1/2, z+1/2'
2 '-x, y+1/2, -z+1/2'
3 'x, y, -z'
4 'x, y, z'
loop_
_atom_type_symbol
_atom_type_oxidation_number
Pb2+ 2
Sb3+ 3
Cu1+ 1
S2- -2
loop_
_atom_site_label
_atom_site_type_symbol
_atom_site_symmetry_multiplicity
_atom_site_Wyckoff_symbol
_atom_site_fract_x
_atom_site_fract_y
_atom_site_fract_z
_atom_site_B_iso_or_equiv
_atom_site_occupancy
_atom_site_attached_hydrogens
Pb1 Pb2+ 2 a 0.07494(2) 0.99154(2) 0 0.01746(4) 1. 0
Pb2 Pb2+ 2 a 0.55700(2) 0.176219(19) 0.5 0.01675(4) 1. 0
Sb1 Sb3+ 2 a 0.07068(4) 0.04318(4) 0.5 0.01413(6) 1. 0
Sb2 Sb3+ 2 a 0.50937(3) 0.15254(4) 0 0.01421(6) 1. 0
Cu1 Cu1+ 4 b 0.27417(7) 0.41487(6) 0.24388(6) 0.02079(9) 1. 0
S1 S2- 2 a 0.23989(13) 0.27372(11) 0 0.01262(18) 1. 0
S2 S2- 2 a 0.23271(13) 0.28214(12) 0.5 0.01257(18) 1. 0
S3 S2- 4 b 0.10540(12) 0.63253(9) 0.23684(10) 0.01520(15) 1. 0
S4 S2- 4 b 0.56324(10) 0.47561(10) 0.26596(11) 0.01491(14) 1. 0
loop_
_atom_site_aniso_label
_atom_site_aniso_type_symbol
_atom_site_aniso_U_11
_atom_site_aniso_U_22
_atom_site_aniso_U_33
_atom_site_aniso_U_12
_atom_site_aniso_U_13
_atom_site_aniso_U_23
Pb1 Pb2+ 0.01684(7) 0.01920(8) 0.01634(9) 0.00031(6) 0. 0.
Pb2 Pb2+ 0.01722(8) 0.01913(8) 0.01391(8) 0.00007(6) 0. 0.
Sb1 Sb3+ 0.01559(13) 0.01296(12) 0.01386(14) -0.00083(9) 0. 0.
Sb2 Sb3+ 0.01319(12) 0.01671(12) 0.01274(13) -0.00090(10) 0. 0.
Cu1 Cu1+ 0.0238(2) 0.02222(18) 0.0164(2) 0.00145(16) -0.00148(16) -0.00175(15)
S1 S2- 0.0156(4) 0.0120(4) 0.0102(5) 0.0001(3) 0. 0.
S2 S2- 0.0128(4) 0.0139(4) 0.0110(5) -0.0010(3) 0. 0.
S3 S2- 0.0154(3) 0.0168(3) 0.0133(4) 0.0019(3) 0.0002(3) 0.0008(3)
S4 S2- 0.0172(3) 0.0162(3) 0.0114(3) -0.0023(3) -0.0008(2) -0.0004(3)
#End of TTdata_182267-ICSD