
#(C) 2017 by FIZ Karlsruhe - Leibniz Institute for Information Infrastructure.  All rights reserved.
data_67520-ICSD
_database_code_ICSD 67520
_audit_creation_date 1993-08-22
_chemical_name_systematic 'Barium titanate'
_chemical_formula_structural 'Ba (Ti O3)'
_chemical_formula_sum 'Ba1 O3 Ti1'
_chemical_name_structure_type Perovskite-PbTiO3
_exptl_crystal_density_diffrn 6.03
_publ_section_title
'Structural Parameters and Electron Difference density in BaTiO3'
loop_
_citation_id
_citation_journal_full
_citation_year
_citation_journal_volume
_citation_page_first
_citation_page_last
_citation_journal_id_ASTM
primary 'Acta Crystallographica, Section B: Structural Science' 1992 48 764 769
ASBSDK
loop_
_publ_author_name
'Buttner, R.H.'
'Maslen, E.N.'
_cell_length_a 3.9998(8)
_cell_length_b 3.9998(28)
_cell_length_c 4.0180(8)
_cell_angle_alpha 90.
_cell_angle_beta 90.
_cell_angle_gamma 90.
_cell_volume 64.28
_cell_formula_units_Z 1
_symmetry_space_group_name_H-M 'P 4 m m'
_symmetry_Int_Tables_number 99
_refine_ls_R_factor_all 0.013
loop_
_symmetry_equiv_pos_site_id
_symmetry_equiv_pos_as_xyz
1 'y, -x, z'
2 '-y, x, z'
3 '-y, -x, z'
4 'y, x, z'
5 'x, -y, z'
6 '-x, y, z'
7 '-x, -y, z'
8 'x, y, z'
loop_
_atom_type_symbol
_atom_type_oxidation_number
Ba2+ 2
Ti4+ 4
O2- -2
loop_
_atom_site_label
_atom_site_type_symbol
_atom_site_symmetry_multiplicity
_atom_site_Wyckoff_symbol
_atom_site_fract_x
_atom_site_fract_y
_atom_site_fract_z
_atom_site_B_iso_or_equiv
_atom_site_occupancy
_atom_site_attached_hydrogens
Ba1 Ba2+ 1 a 0 0 0 . 1. 0
Ti1 Ti4+ 1 b 0.5 0.5 0.482(1) . 1. 0
O1 O2- 1 b 0.5 0.5 0.016(5) . 1. 0
O2 O2- 2 c 0.5 0 0.515(3) . 1. 0
loop_
_atom_site_aniso_label
_atom_site_aniso_type_symbol
_atom_site_aniso_U_11
_atom_site_aniso_U_22
_atom_site_aniso_U_33
_atom_site_aniso_U_12
_atom_site_aniso_U_13
_atom_site_aniso_U_23
Ba1 Ba2+ 0.00523(6) 0.00523(6) 0.00666(21) 0 0 0
Ti1 Ti4+ 0.00834(14) 0.00834(14) 0.0027(12) 0 0 0
O1 O2- 0.00721(51) 0.00721(51) 0.0073(16) 0 0 0
O2 O2- 0.00700(57) 0.00669(57) 0.0065(10) 0 0 0
#End of TTdata_67520-ICSD