
#(C) 2017 by FIZ Karlsruhe - Leibniz Institute for Information Infrastructure.  All rights reserved.
data_79746-ICSD
_database_code_ICSD 79746
_audit_creation_date 1996-10-14
_audit_update_record 1998-06-29
_chemical_name_systematic 'Cerium phosphate'
_chemical_formula_structural 'Ce (P O4)'
_chemical_formula_sum 'Ce1 O4 P1'
_chemical_name_structure_type Monazite-CePO4(mP)
_chemical_name_mineral Monazite-(Ce)
_exptl_crystal_density_diffrn 5.21
_publ_section_title 'Crystal chemistry of the monazite and xenotime structures'
loop_
_citation_id
_citation_journal_full
_citation_year
_citation_journal_volume
_citation_page_first
_citation_page_last
_citation_journal_id_ASTM
primary 'American Mineralogist' 1995 80 21 26 AMMIAY
loop_
_publ_author_name
'Ni, Y.-X.'
'Hughes, J.M.'
'Mariano, A.N.'
_cell_length_a 6.7902(10)
_cell_length_b 7.0203(6)
_cell_length_c 6.4674(7)
_cell_angle_alpha 90.
_cell_angle_beta 103.38(1)
_cell_angle_gamma 90.
_cell_volume 299.93
_cell_formula_units_Z 4
_symmetry_space_group_name_H-M 'P 1 21/n 1'
_symmetry_Int_Tables_number 14
_refine_ls_R_factor_all 0.015
loop_
_symmetry_equiv_pos_site_id
_symmetry_equiv_pos_as_xyz
1 '-x+1/2, y+1/2, -z+1/2'
2 '-x, -y, -z'
3 'x+1/2, -y+1/2, z+1/2'
4 'x, y, z'
loop_
_atom_type_symbol
_atom_type_oxidation_number
Ce3+ 3
P5+ 5
O2- -2
loop_
_atom_site_label
_atom_site_type_symbol
_atom_site_symmetry_multiplicity
_atom_site_Wyckoff_symbol
_atom_site_fract_x
_atom_site_fract_y
_atom_site_fract_z
_atom_site_B_iso_or_equiv
_atom_site_occupancy
_atom_site_attached_hydrogens
Ce1 Ce3+ 4 e 0.28152(4) 0.15929(4) 0.10006(4) 0.329(4) 1. 0
P1 P5+ 4 e 0.3048(2) 0.1630(2) 0.6121(2) 0.31(2) 1. 0
O1 O2- 4 e 0.2501(5) 0.0068(5) 0.4450(5) 0.63(6) 1. 0
O2 O2- 4 e 0.3814(5) 0.3307(6) 0.4975(6) 0.69(6) 1. 0
O3 O2- 4 e 0.4742(6) 0.1070(6) 0.8037(6) 0.73(6) 1. 0
O4 O2- 4 e 0.1274(5) 0.2153(5) 0.7104(6) 0.63(6) 1. 0
#End of TTdata_79746-ICSD