
#(C) 2017 by FIZ Karlsruhe - Leibniz Institute for Information Infrastructure.  All rights reserved.
data_15615-ICSD
_database_code_ICSD 15615
_audit_creation_date 1980-01-01
_audit_update_record 2007-08-01
_chemical_name_systematic 'Manganese molybdate - alpha'
_chemical_formula_structural 'Mn (Mo O4)'
_chemical_formula_sum 'Mn1 Mo1 O4'
_chemical_name_structure_type CoMoO4
_exptl_crystal_density_diffrn 4.18
_publ_section_title

;
Crystal structure of the transition-metal molybdates. I. Para magnetic alpha
Mn Mo O4
;
loop_
_citation_id
_citation_journal_full
_citation_year
_citation_journal_volume
_citation_page_first
_citation_page_last
_citation_journal_id_ASTM
primary 'Journal of Chemical Physics' 1965 43 2533 2543 JCPSA6
loop_
_publ_author_name
'Abrahams, S.C.'
'Reddy, J.M.'
_cell_length_a 10.469(5)
_cell_length_b 9.516(5)
_cell_length_c 7.143(5)
_cell_angle_alpha 90.
_cell_angle_beta 106.28(10)
_cell_angle_gamma 90.
_cell_volume 683.07
_cell_formula_units_Z 8
_symmetry_space_group_name_H-M 'C 1 2/m 1'
_symmetry_Int_Tables_number 12
_refine_ls_R_factor_all 0.0574
loop_
_symmetry_equiv_pos_site_id
_symmetry_equiv_pos_as_xyz
1 '-x, y, -z'
2 '-x, -y, -z'
3 'x, -y, z'
4 'x, y, z'
5 '-x+1/2, y+1/2, -z'
6 '-x+1/2, -y+1/2, -z'
7 'x+1/2, -y+1/2, z'
8 'x+1/2, y+1/2, z'
loop_
_atom_type_symbol
_atom_type_oxidation_number
Mn2+ 2
Mo6+ 6
O2- -2
loop_
_atom_site_label
_atom_site_type_symbol
_atom_site_symmetry_multiplicity
_atom_site_Wyckoff_symbol
_atom_site_fract_x
_atom_site_fract_y
_atom_site_fract_z
_atom_site_B_iso_or_equiv
_atom_site_occupancy
_atom_site_attached_hydrogens
Mn1 Mn2+ 4 h 0 0.18299(12) 0.5 . 1. 0
Mn2 Mn2+ 4 i 0.79532(9) 0 0.13870(12) . 1. 0
Mo1 Mo6+ 4 g 0 0.25160(6) 0 . 1. 0
Mo2 Mo6+ 4 i 0.27069(5) 0 0.40499(7) . 1. 0
O1 O2- 4 i 0.3587(4) 0.5 0.4635(6) . 1. 0
O2 O2- 4 i 0.2029(6) 0 0.1534(8) . 1. 0
O3 O2- 8 j 0.1369(5) 0.3548(7) 0.1083(7) . 1. 0
O4 O2- 8 j 0.4584(3) 0.3455(5) 0.1904(4) . 1. 0
O5 O2- 8 j 0.3645(6) 0.1504(8) 0.4698(8) . 1. 0
loop_
_atom_site_aniso_label
_atom_site_aniso_type_symbol
_atom_site_aniso_beta_11
_atom_site_aniso_beta_22
_atom_site_aniso_beta_33
_atom_site_aniso_beta_12
_atom_site_aniso_beta_13
_atom_site_aniso_beta_23
Mn1 Mn2+ 0.00215(6) 0.00257(10) 0.00332(11) 0 0.00089(6) 0
Mn2 Mn2+ 0.00180(5) 0.00302(10) 0.00319(11) 0 0.00079(6) 0
Mo1 Mo6+ 0.00178(3) 0.00219(6) 0.00280(6) 0 0.00116(3) 0
Mo2 Mo6+ 0.00132(3) 0.00278(6) 0.00265(6) 0 0.00102(3) 0
O1 O2- 0.0018(3) 0.0038(5) 0.0032(5) 0 0.0015(3) 0
O2 O2- 0.0040(4) 0.0124(12) 0.0038(7) 0 0.0021(5) 0
O3 O2- 0.0047(3) 0.0063(6) 0.0090(7) -.0029(3) 0.0029(4) -.0016(5)
O4 O2- 0.0029(2) 0.0038(4) 0.0035(4) 0.0006(2) 0.0016(2) 0.0000(3)
O5 O2- 0.0070(5) 0.0075(8) 0.0131(9) -.0048(5) 0.0052(5) -.0037(6)
#End of TTdata_15615-ICSD