
#(C) 2017 by FIZ Karlsruhe - Leibniz Institute for Information Infrastructure.  All rights reserved.
data_20344-ICSD
_database_code_ICSD 20344
_audit_creation_date 1981-12-31
_audit_update_record 2015-02-01
_chemical_name_systematic 'Antimony niobate'
_chemical_formula_structural 'Sb (Nb O4)'
_chemical_formula_sum 'Nb1 O4 Sb1'
_chemical_name_structure_type Sb3TaO8
_chemical_name_mineral Stibiocolumbite
_exptl_crystal_density_diffrn 5.73
_cell_measurement_temperature 300.
_publ_section_title
'Structure and lattice dynamics of Sb Nb O4 crystals at 300-1000 K'
loop_
_citation_id
_citation_journal_full
_citation_year
_citation_journal_volume
_citation_page_first
_citation_page_last
_citation_journal_id_ASTM
primary Kristallografiya 1981 26 341 348 KRISAJ
loop_
_publ_author_name
'Ponomarev, V.I.'
'Filipenko, O.S.'
'Atovmyan, L.O.'
'Rannev, N.V.'
'Ivanov, S.A.'
'Venevtsev, Yu.N.'
_cell_length_a 5.557(5)
_cell_length_b 4.932(4)
_cell_length_c 11.795(7)
_cell_angle_alpha 90.
_cell_angle_beta 90.
_cell_angle_gamma 90.
_cell_volume 323.27
_cell_formula_units_Z 4
_symmetry_space_group_name_H-M 'P n a 21'
_symmetry_Int_Tables_number 33
_refine_ls_R_factor_all 0.044
loop_
_symmetry_equiv_pos_site_id
_symmetry_equiv_pos_as_xyz
1 'x+1/2, -y+1/2, z'
2 '-x+1/2, y+1/2, z+1/2'
3 '-x, -y, z+1/2'
4 'x, y, z'
loop_
_atom_type_symbol
_atom_type_oxidation_number
Sb3+ 3
Nb5+ 5
O2- -2
loop_
_atom_site_label
_atom_site_type_symbol
_atom_site_symmetry_multiplicity
_atom_site_Wyckoff_symbol
_atom_site_fract_x
_atom_site_fract_y
_atom_site_fract_z
_atom_site_B_iso_or_equiv
_atom_site_occupancy
_atom_site_attached_hydrogens
Sb1 Sb3+ 4 a 0.4745(1) 0.0516(1) 0.2484(1) 1.3(1) 1. 0
Nb1 Nb5+ 4 a 0.1055(1) -.0083(1) 0 0.27(7) 1. 0
O1 O2- 4 a 0.1779(6) -.1655(7) -.1505(4) 0.78(4) 1. 0
O2 O2- 4 a 0.4182(6) -.2112(7) 0.0582(4) 0.85(5) 1. 0
O3 O2- 4 a 0.1529(5) 0.1676(6) 0.1603(4) 0.90(4) 1. 0
O4 O2- 4 a 0.3697(6) 0.2767(7) -.0443(4) 0.88(5) 1. 0
#End of TTdata_20344-ICSD