
#(C) 2020 by FIZ Karlsruhe - Leibniz Institute for Information Infrastructure.  All rights reserved.
data_619215-ICSD
_database_code_ICSD 619215
_audit_creation_date 2008-08-01
_audit_update_record 2018-02-01
_chemical_name_common 'Calcium copper (1/5)'
_chemical_formula_structural 'Ca Cu5'
_chemical_formula_sum 'Ca1 Cu5'
_chemical_name_structure_type CaCu5
_exptl_crystal_density_diffrn 6.54
_citation_title
'The binary systems calcium-copper, strontium-copper and barium-copper'
loop_
_citation_id
_citation_journal_full
_citation_year
_citation_journal_volume
_citation_page_first
_citation_page_last
_citation_journal_id_ASTM
primary 'Journal of the Less-Common Metals' 1971 25 361 366 JCOMAH
loop_
_citation_author_citation_id
_citation_author_name
primary 'Bruzzone, G.'
_cell_length_a 5.074(2)
_cell_length_b 5.074(2)
_cell_length_c 4.074(2)
_cell_angle_alpha 90.
_cell_angle_beta 90.
_cell_angle_gamma 120.
_cell_volume 90.83
_cell_formula_units_Z 1
_space_group_name_H-M_alt 'P 6/m m m'
_space_group_IT_number 191
loop_
_space_group_symop_id
_space_group_symop_operation_xyz
1 '-x, -x+y, -z'
2 'x-y, -y, -z'
3 'y, x, -z'
4 '-x+y, -x, -z'
5 '-y, x-y, -z'
6 'x, y, -z'
7 'x, x-y, -z'
8 '-x+y, y, -z'
9 '-y, -x, -z'
10 'x-y, x, -z'
11 'y, -x+y, -z'
12 '-x, -y, -z'
13 'x, x-y, z'
14 '-x+y, y, z'
15 '-y, -x, z'
16 'x-y, x, z'
17 'y, -x+y, z'
18 '-x, -y, z'
19 '-x, -x+y, z'
20 'x-y, -y, z'
21 'y, x, z'
22 '-x+y, -x, z'
23 '-y, x-y, z'
24 'x, y, z'
loop_
_atom_type_symbol
_atom_type_oxidation_number
Ca0+ 0
Cu0+ 0
loop_
_atom_site_label
_atom_site_type_symbol
_atom_site_symmetry_multiplicity
_atom_site_Wyckoff_symbol
_atom_site_fract_x
_atom_site_fract_y
_atom_site_fract_z
_atom_site_B_iso_or_equiv
_atom_site_occupancy
Ca1 Ca0+ 1 a 0 0 0 . 1
Cu1 Cu0+ 2 c 0.3333 0.6667 0 . 1
Cu2 Cu0+ 3 g 0.5 0 0.5 . 1
#End of TTdata_619215-ICSD