
#(C) 2020 by FIZ Karlsruhe - Leibniz Institute for Information Infrastructure.  All rights reserved.
data_606460-ICSD
_database_code_ICSD 606460
_audit_creation_date 2009-02-01
_audit_update_record 2019-02-01
_chemical_name_common 'Aluminum cerium gallium (2/1/2)'
_chemical_formula_structural 'Al2 Ce Ga2'
_chemical_formula_sum 'Al2 Ce1 Ga2'
_chemical_name_structure_type CeAl2Ga2#BaAl4
_exptl_crystal_density_diffrn 5.51
_citation_title
'Some new materials REAl2Ga2 and their NMR and X-ray absorption studies'
_publ_section_comment 'Cell and Type only determined'
loop_
_citation_id
_citation_journal_full
_citation_year
_citation_journal_volume
_citation_page_first
_citation_page_last
_citation_journal_id_ASTM
primary 'Materials Research Bulletin' 1980 15 939 943 MRBUAC
loop_
_citation_author_citation_id
_citation_author_name
primary 'Sampathkumaran, E.V.'
primary 'Gupta, L.C.'
primary 'Vijayaraghavan, R.'
primary 'Hatwar, T.K.'
primary 'Ghatikar, M.N.'
primary 'Padalia, B.D.'
_cell_length_a 4.244(5)
_cell_length_b 4.244(5)
_cell_length_c 11.161(5)
_cell_angle_alpha 90.
_cell_angle_beta 90.
_cell_angle_gamma 90.
_cell_volume 201.03
_cell_formula_units_Z 2
_space_group_name_H-M_alt 'I 4/m m m'
_space_group_IT_number 139
loop_
_space_group_symop_id
_space_group_symop_operation_xyz
1 'y, x, -z'
2 '-y, -x, -z'
3 '-y, x, -z'
4 'y, -x, -z'
5 '-x, y, -z'
6 'x, -y, -z'
7 'x, y, -z'
8 '-x, -y, -z'
9 '-y, -x, z'
10 'y, x, z'
11 'y, -x, z'
12 '-y, x, z'
13 'x, -y, z'
14 '-x, y, z'
15 '-x, -y, z'
16 'x, y, z'
17 'y+1/2, x+1/2, -z+1/2'
18 '-y+1/2, -x+1/2, -z+1/2'
19 '-y+1/2, x+1/2, -z+1/2'
20 'y+1/2, -x+1/2, -z+1/2'
21 '-x+1/2, y+1/2, -z+1/2'
22 'x+1/2, -y+1/2, -z+1/2'
23 'x+1/2, y+1/2, -z+1/2'
24 '-x+1/2, -y+1/2, -z+1/2'
25 '-y+1/2, -x+1/2, z+1/2'
26 'y+1/2, x+1/2, z+1/2'
27 'y+1/2, -x+1/2, z+1/2'
28 '-y+1/2, x+1/2, z+1/2'
29 'x+1/2, -y+1/2, z+1/2'
30 '-x+1/2, y+1/2, z+1/2'
31 '-x+1/2, -y+1/2, z+1/2'
32 'x+1/2, y+1/2, z+1/2'
loop_
_atom_type_symbol
_atom_type_oxidation_number
Ce0+ 0
Al0+ 0
Ga0+ 0
loop_
_atom_site_label
_atom_site_type_symbol
_atom_site_symmetry_multiplicity
_atom_site_Wyckoff_symbol
_atom_site_fract_x
_atom_site_fract_y
_atom_site_fract_z
_atom_site_B_iso_or_equiv
_atom_site_occupancy
Ce1 Ce0+ 2 a 0 0 0 . 1.
Al1 Al0+ 4 d 0 0.5 0.25 . 1.
Ga1 Ga0+ 4 e 0 0 0.376 . 1.
#End of TTdata_606460-ICSD