
#(C) 2020 by FIZ Karlsruhe - Leibniz Institute for Information Infrastructure.  All rights reserved.
data_5431-ICSD
_database_code_ICSD 5431
_audit_creation_date 2016-02-01
_chemical_name_common 'Iron molybdenum boride (1/2/2)'
_chemical_formula_structural 'Fe Mo2 B2'
_chemical_formula_sum 'B2 Fe1 Mo2'
_chemical_name_structure_type U3Si2
_exptl_crystal_density_diffrn 6.97
_citation_title '57Fe Moessbauer study of some M2(M')B2 borides'
loop_
_citation_id
_citation_journal_full
_citation_year
_citation_journal_volume
_citation_page_first
_citation_page_last
_citation_journal_id_ASTM
primary 'Journal of Physics and Chemistry of Solids' 1973 34 139 140 JPCSAW
loop_
_citation_author_citation_id
_citation_author_name
primary 'De Young, D.B.'
primary 'Barnes, R.G.'
_cell_length_a 6.115(4)
_cell_length_b 6.115(4)
_cell_length_c 3.433(3)
_cell_angle_alpha 90.
_cell_angle_beta 90.
_cell_angle_gamma 90.
_cell_volume 128.37
_cell_formula_units_Z 2
_space_group_name_H-M_alt 'P 4/m b m'
_space_group_IT_number 127
loop_
_space_group_symop_id
_space_group_symop_operation_xyz
1 'y+1/2, x+1/2, -z'
2 '-y+1/2, -x+1/2, -z'
3 '-y, x, -z'
4 'y, -x, -z'
5 'x+1/2, -y+1/2, -z'
6 '-x+1/2, y+1/2, -z'
7 'x, y, -z'
8 '-x, -y, -z'
9 '-y+1/2, -x+1/2, z'
10 'y+1/2, x+1/2, z'
11 'y, -x, z'
12 '-y, x, z'
13 '-x+1/2, y+1/2, z'
14 'x+1/2, -y+1/2, z'
15 '-x, -y, z'
16 'x, y, z'
loop_
_atom_type_symbol
_atom_type_oxidation_number
Fe0+ 0
B0+ 0
Mo0+ 0
loop_
_atom_site_label
_atom_site_type_symbol
_atom_site_symmetry_multiplicity
_atom_site_Wyckoff_symbol
_atom_site_fract_x
_atom_site_fract_y
_atom_site_fract_z
_atom_site_B_iso_or_equiv
_atom_site_occupancy
Fe1 Fe0+ 2 a 0 0 0 . 1.
B1 B0+ 4 g 0.61 0.11 0 . 1.
Mo1 Mo0+ 4 h 0.18 0.68 0.5 . 1.
#End of TTdata_5431-ICSD