
#(C) 2020 by FIZ Karlsruhe - Leibniz Institute for Information Infrastructure.  All rights reserved.
data_104986-ICSD
_database_code_ICSD 104986
_audit_creation_date 2004-10-01
_audit_update_record 2010-08-01
_chemical_name_common 'Manganese thorium (12/1)'
_chemical_formula_structural 'Mn12 Th'
_chemical_formula_sum 'Mn12 Th1'
_chemical_name_structure_type ThMn12
_exptl_crystal_density_diffrn 7.83
_citation_title
'Compounds of thorium with transition metals. I. The thorium-manganese system'
loop_
_citation_id
_citation_journal_full
_citation_year
_citation_journal_volume
_citation_page_first
_citation_page_last
_citation_journal_id_ASTM
primary 'Acta Crystallographica' 1952 5 449 457 ACCRA9
loop_
_citation_author_citation_id
_citation_author_name
primary 'Florio, J.V.'
primary 'Rundle, R.E.'
primary 'Snow, A.I.'
_cell_length_a 8.74(1)
_cell_length_b 8.74
_cell_length_c 4.95(1)
_cell_angle_alpha 90.
_cell_angle_beta 90.
_cell_angle_gamma 90.
_cell_volume 378.12
_cell_formula_units_Z 2
_space_group_name_H-M_alt 'I 4/m m m'
_space_group_IT_number 139
loop_
_space_group_symop_id
_space_group_symop_operation_xyz
1 'y, x, -z'
2 '-y, -x, -z'
3 '-y, x, -z'
4 'y, -x, -z'
5 '-x, y, -z'
6 'x, -y, -z'
7 'x, y, -z'
8 '-x, -y, -z'
9 '-y, -x, z'
10 'y, x, z'
11 'y, -x, z'
12 '-y, x, z'
13 'x, -y, z'
14 '-x, y, z'
15 '-x, -y, z'
16 'x, y, z'
17 'y+1/2, x+1/2, -z+1/2'
18 '-y+1/2, -x+1/2, -z+1/2'
19 '-y+1/2, x+1/2, -z+1/2'
20 'y+1/2, -x+1/2, -z+1/2'
21 '-x+1/2, y+1/2, -z+1/2'
22 'x+1/2, -y+1/2, -z+1/2'
23 'x+1/2, y+1/2, -z+1/2'
24 '-x+1/2, -y+1/2, -z+1/2'
25 '-y+1/2, -x+1/2, z+1/2'
26 'y+1/2, x+1/2, z+1/2'
27 'y+1/2, -x+1/2, z+1/2'
28 '-y+1/2, x+1/2, z+1/2'
29 'x+1/2, -y+1/2, z+1/2'
30 '-x+1/2, y+1/2, z+1/2'
31 '-x+1/2, -y+1/2, z+1/2'
32 'x+1/2, y+1/2, z+1/2'
loop_
_atom_type_symbol
_atom_type_oxidation_number
Mn0+ 0
Th0+ 0
loop_
_atom_site_label
_atom_site_type_symbol
_atom_site_symmetry_multiplicity
_atom_site_Wyckoff_symbol
_atom_site_fract_x
_atom_site_fract_y
_atom_site_fract_z
_atom_site_B_iso_or_equiv
_atom_site_occupancy
Mn1 Mn0+ 8 f 0.25 0.25 0.25 3.5 1.
Mn2 Mn0+ 8 i 0.361(2) 0 0 3.5 1.
Mn3 Mn0+ 8 j 0.277(2) 0.5 0 3.5 1.
Th1 Th0+ 2 a 0 0 0 3.5 1.
#End of TTdata_104986-ICSD