
#(C) 2020 by FIZ Karlsruhe - Leibniz Institute for Information Infrastructure.  All rights reserved.
data_18188-ICSD
_database_code_ICSD 18188
_audit_creation_date 1980-01-01
_audit_update_record 2017-08-01
_chemical_name_common 'Titanium nickel silicon (1/1/1) - E-phase'
_chemical_formula_structural 'Ti Ni Si'
_chemical_formula_sum 'Ni1 Si1 Ti1'
_chemical_name_structure_type TiNiSi#MgSrSi
_exptl_crystal_density_diffrn 5.65
_citation_title 'A ternary alloy with PbCl2-type structure: Ti Ni Si(E)'
loop_
_citation_id
_citation_journal_full
_citation_year
_citation_journal_volume
_citation_page_first
_citation_page_last
_citation_journal_id_ASTM
primary 'Acta Crystallographica' 1965 18 900 905 ACCRA9
loop_
_citation_author_citation_id
_citation_author_name
primary 'Shoemaker, Clara Brink'
primary 'Shoemaker, David P.'
_cell_length_a 6.1484(12)
_cell_length_b 7.0173(14)
_cell_length_c 3.6698(7)
_cell_angle_alpha 90.
_cell_angle_beta 90.
_cell_angle_gamma 90.
_cell_volume 158.33
_cell_formula_units_Z 4
_space_group_name_H-M_alt 'P n a m'
_space_group_IT_number 62
loop_
_space_group_symop_id
_space_group_symop_operation_xyz
1 'x+1/2, -y+1/2, z'
2 'x, y, -z+1/2'
3 '-x+1/2, y+1/2, z+1/2'
4 '-x, -y, -z'
5 '-x+1/2, y+1/2, -z'
6 '-x, -y, z+1/2'
7 'x+1/2, -y+1/2, -z+1/2'
8 'x, y, z'
loop_
_atom_type_symbol
_atom_type_oxidation_number
Ti0+ 0
Ni0+ 0
Si0+ 0
loop_
_atom_site_label
_atom_site_type_symbol
_atom_site_symmetry_multiplicity
_atom_site_Wyckoff_symbol
_atom_site_fract_x
_atom_site_fract_y
_atom_site_fract_z
_atom_site_B_iso_or_equiv
_atom_site_occupancy
Ti1 Ti0+ 4 c 0.0212(10) 0.1803(11) 0.25 0.12(13) 1.
Ni1 Ni0+ 4 c 0.1420(8) 0.5609(8) 0.25 0.37(12) 1.
Si1 Si0+ 4 c 0.7651(18) 0.6229(18) 0.25 0.24(19) 1.
#End of TTdata_18188-ICSD