
#(C) 2017 by FIZ Karlsruhe - Leibniz Institute for Information Infrastructure.  All rights reserved.
data_9641-ICSD
_database_code_ICSD 9641
_audit_creation_date 1980-01-01
_audit_update_record 2015-08-01
_chemical_name_systematic 'Aluminium phosphate - alpha'
_chemical_formula_structural 'Al P O4'
_chemical_formula_sum 'Al1 O4 P1'
_chemical_name_structure_type Berlinite-AlPO4
_chemical_name_mineral Berlinite
_exptl_crystal_density_diffrn 2.62
_cell_measurement_temperature 298.
_publ_section_title
'X-ray study of the alpha-beta transformation of Berlinite Al P O4'
loop_
_citation_id
_citation_journal_full
_citation_year
_citation_journal_volume
_citation_page_first
_citation_page_last
_citation_journal_id_ASTM
primary 'Canadian Journal of Physics' 1976 54 638 647 CJPHAD
loop_
_publ_author_name
'Ng, H.N.'
'Calvo, C.'
_cell_length_a 4.94292(16)
_cell_length_b 4.94292(16)
_cell_length_c 10.94761(46)
_cell_angle_alpha 90.
_cell_angle_beta 90.
_cell_angle_gamma 120.
_cell_volume 231.64
_cell_formula_units_Z 3
_symmetry_space_group_name_H-M 'P 31 2 1'
_symmetry_Int_Tables_number 152
_refine_ls_R_factor_all 0.017
loop_
_symmetry_equiv_pos_site_id
_symmetry_equiv_pos_as_xyz
1 'x-y, -y, -z+2/3'
2 '-x, -x+y, -z+1/3'
3 'y, x, -z'
4 '-x+y, -x, z+2/3'
5 '-y, x-y, z+1/3'
6 'x, y, z'
loop_
_atom_type_symbol
_atom_type_oxidation_number
Al3+ 3
P5+ 5
O2- -2
loop_
_atom_site_label
_atom_site_type_symbol
_atom_site_symmetry_multiplicity
_atom_site_Wyckoff_symbol
_atom_site_fract_x
_atom_site_fract_y
_atom_site_fract_z
_atom_site_B_iso_or_equiv
_atom_site_occupancy
_atom_site_attached_hydrogens
Al1 Al3+ 3 a 0.466(1) 0 0.3333 . 1. 0
P1 P5+ 3 b 0.4675(8) 0 0.8333 . 1. 0
O1 O2- 6 c 0.422(2) 0.296(1) 0.3965(2) . 1. 0
O2 O2- 6 c 0.409(1) 0.252(1) 0.8858(3) . 1. 0
loop_
_atom_site_aniso_label
_atom_site_aniso_type_symbol
_atom_site_aniso_U_11
_atom_site_aniso_U_22
_atom_site_aniso_U_33
_atom_site_aniso_U_12
_atom_site_aniso_U_13
_atom_site_aniso_U_23
Al1 Al3+ 0.006(1) 0.005(1) 0.0066(9) 0.0025(5) 0.0015(5) 0.003(1)
P1 P5+ 0.007(1) 0.007(1) 0.0074(8) 0.0035(5) -.0025(5) -.005(1)
O1 O2- 0.022(3) 0.009(2) 0.014(1) 0.010(3) 0.004(3) 0.003(2)
O2 O2- 0.018(3) 0.009(2) 0.014(1) 0.010(2) -.009(3) -.005(2)
#End of TTdata_9641-ICSD