
#(C) 2018 by FIZ Karlsruhe - Leibniz Institute for Information Infrastructure.  All rights reserved.
data_200112-ICSD
_database_code_ICSD 200112
_audit_creation_date 1980-01-01
_audit_update_record 1997-11-10
_chemical_name_systematic 'Barium sulfate'
_chemical_formula_structural 'Ba S O4'
_chemical_formula_sum 'Ba1 O4 S1'
_chemical_name_structure_type Barite#-BaSO4
_chemical_name_mineral Barite
_exptl_crystal_density_diffrn 4.47
_publ_section_title 'A further refinement of the barite structure'
loop_
_citation_id
_citation_journal_full
_citation_year
_citation_journal_volume
_citation_page_first
_citation_page_last
_citation_journal_id_ASTM
primary 'Canadian Mineralogist' 1977 15 522 526 CAMIA6
loop_
_publ_author_name
'Hill, R.J.'
_cell_length_a 8.8842(12)
_cell_length_b 5.4559(8)
_cell_length_c 7.1569(9)
_cell_angle_alpha 90.
_cell_angle_beta 90.
_cell_angle_gamma 90.
_cell_volume 346.9
_cell_formula_units_Z 4
_symmetry_space_group_name_H-M 'P n m a'
_symmetry_Int_Tables_number 62
_refine_ls_R_factor_all 0.0295
loop_
_symmetry_equiv_pos_site_id
_symmetry_equiv_pos_as_xyz
1 'x+1/2, y, -z+1/2'
2 'x, -y+1/2, z'
3 '-x+1/2, y+1/2, z+1/2'
4 '-x, -y, -z'
5 '-x+1/2, -y, z+1/2'
6 '-x, y+1/2, -z'
7 'x+1/2, -y+1/2, -z+1/2'
8 'x, y, z'
loop_
_atom_type_symbol
_atom_type_oxidation_number
Ba2+ 2
S6+ 6
O2- -2
loop_
_atom_site_label
_atom_site_type_symbol
_atom_site_symmetry_multiplicity
_atom_site_Wyckoff_symbol
_atom_site_fract_x
_atom_site_fract_y
_atom_site_fract_z
_atom_site_B_iso_or_equiv
_atom_site_occupancy
_atom_site_attached_hydrogens
Ba1 Ba2+ 4 c 0.1845(1) 0.25 0.1585(1) . 1. 0
S1 S6+ 4 c 0.4373(4) 0.75 0.1913(5) . 1. 0
O1 O2- 4 c 0.5890(12) 0.75 0.1066(16) . 1. 0
O2 O2- 4 c 0.3183(13) 0.75 0.0518(15) . 1. 0
O3 O2- 8 d 0.4204(8) 0.9700(13) 0.3116(9) . 1. 0
loop_
_atom_site_aniso_label
_atom_site_aniso_type_symbol
_atom_site_aniso_beta_11
_atom_site_aniso_beta_22
_atom_site_aniso_beta_33
_atom_site_aniso_beta_12
_atom_site_aniso_beta_13
_atom_site_aniso_beta_23
Ba1 Ba2+ 0.0023(1) 0.0086(4) 0.0038(2) 0 -.0003(1) 0
S1 S6+ 0.0026(4) 0.0087(11) 0.0033(6) 0 0.0003(4) 0
O1 O2- 0.0029(13) 0.0174(39) 0.0111(22) 0 0.0015(14) 0
O2 O2- 0.0070(16) 0.0197(41) 0.0054(19) 0 -.0017(15) 0
O3 O2- 0.0035(9) 0.0097(23) 0.0048(11) 0.0015(12) -.0003(8) -.0011(14)
#End of TTdata_200112-ICSD