
#(C) 2017 by FIZ Karlsruhe - Leibniz Institute for Information Infrastructure.  All rights reserved.
data_67987-ICSD
_database_code_ICSD 67987
_audit_creation_date 1995-01-10
_audit_update_record 2010-02-01
_chemical_name_systematic 'Bismuth phosphate(V)'
_chemical_formula_structural 'Bi (P O4)'
_chemical_formula_sum 'Bi1 O4 P1'
_chemical_name_structure_type Monazite-CePO4(mP)
_chemical_name_mineral Ximengite
_exptl_crystal_density_diffrn 6.82
_publ_section_title
'Synthesis, crystal structures, and characterization of bismuth phosphates'
loop_
_citation_id
_citation_journal_full
_citation_year
_citation_journal_volume
_citation_page_first
_citation_page_last
_citation_journal_id_ASTM
primary 'Inorganic Chemistry' 1994 33 1869 1874 INOCAJ
loop_
_publ_author_name
'Romero, B.'
'Bruque, S.'
'Aranda, M.A.G.'
'Iglesias, J.E.'
_cell_length_a 6.7626(1)
_cell_length_b 6.9516(1)
_cell_length_c 6.4822(8)
_cell_angle_alpha 90.
_cell_angle_beta 103.736(1)
_cell_angle_gamma 90.
_cell_volume 296.02
_cell_formula_units_Z 4
_symmetry_space_group_name_H-M 'P 1 21/n 1'
_symmetry_Int_Tables_number 14
_refine_ls_R_factor_all 0.037
loop_
_symmetry_equiv_pos_site_id
_symmetry_equiv_pos_as_xyz
1 '-x+1/2, y+1/2, -z+1/2'
2 '-x, -y, -z'
3 'x+1/2, -y+1/2, z+1/2'
4 'x, y, z'
loop_
_atom_type_symbol
_atom_type_oxidation_number
Bi3+ 3
P5+ 5
O2- -2
loop_
_atom_site_label
_atom_site_type_symbol
_atom_site_symmetry_multiplicity
_atom_site_Wyckoff_symbol
_atom_site_fract_x
_atom_site_fract_y
_atom_site_fract_z
_atom_site_B_iso_or_equiv
_atom_site_occupancy
_atom_site_attached_hydrogens
Bi1 Bi3+ 4 e 0.2858(1) 0.1442(1) 0.0872(1) 0.82(2) 1. 0
P1 P5+ 4 e 0.2961(8) 0.1614(7) 0.6113(7) 0.75(9) 1. 0
O1 O2- 4 e 0.2612(13) 0.0097(12) 0.4419(15) 0.01(11) 1. 0
O2 O2- 4 e 0.3803(12) 0.3280(15) 0.5221(14) 0.01(11) 1. 0
O3 O2- 4 e 0.4533(13) 0.1043(13) 0.8148(13) 0.01(11) 1. 0
O4 O2- 4 e 0.1223(15) 0.1992(13) 0.7072(14) 0.01(11) 1. 0
#End of TTdata_67987-ICSD