
#(C) 2017 by FIZ Karlsruhe - Leibniz Institute for Information Infrastructure.  All rights reserved.
data_86826-ICSD
_database_code_ICSD 86826
_audit_creation_date 2000-07-15
_chemical_name_systematic 'Rhodium niobate'
_chemical_formula_structural 'Rh (Nb O4)'
_chemical_formula_sum 'Nb1 O4 Rh1'
_chemical_name_structure_type Rutile-TiO2
_exptl_crystal_density_diffrn 6.42
_publ_section_title 'The structure of Rh M O4, M = Nb, Ta and Sb'
loop_
_citation_id
_citation_journal_full
_citation_year
_citation_journal_volume
_citation_page_first
_citation_page_last
_citation_journal_id_ASTM
primary 'Materials Science Forum' 1998 278 714 719 MSFOEP
loop_
_publ_author_name
Ismunandar
'Kennedy, B.J.'
'Hunter, B.A.'
_cell_length_a 4.70186(8)
_cell_length_b 4.70186(8)
_cell_length_c 3.01685(6)
_cell_angle_alpha 90.
_cell_angle_beta 90.
_cell_angle_gamma 90.
_cell_volume 66.69
_cell_formula_units_Z 1
_symmetry_space_group_name_H-M 'P 42/m n m'
_symmetry_Int_Tables_number 136
_refine_ls_R_factor_all 0.051
loop_
_symmetry_equiv_pos_site_id
_symmetry_equiv_pos_as_xyz
1 '-y+1/2, x+1/2, -z+1/2'
2 'y+1/2, -x+1/2, -z+1/2'
3 'y, x, -z'
4 '-y, -x, -z'
5 'y+1/2, -x+1/2, z+1/2'
6 '-y+1/2, x+1/2, z+1/2'
7 '-y, -x, z'
8 'y, x, z'
9 'x+1/2, -y+1/2, -z+1/2'
10 '-x+1/2, y+1/2, -z+1/2'
11 'x, y, -z'
12 '-x, -y, -z'
13 '-x+1/2, y+1/2, z+1/2'
14 'x+1/2, -y+1/2, z+1/2'
15 '-x, -y, z'
16 'x, y, z'
loop_
_atom_type_symbol
_atom_type_oxidation_number
Rh3+ 3
Nb5+ 5
O2- -2
loop_
_atom_site_label
_atom_site_type_symbol
_atom_site_symmetry_multiplicity
_atom_site_Wyckoff_symbol
_atom_site_fract_x
_atom_site_fract_y
_atom_site_fract_z
_atom_site_B_iso_or_equiv
_atom_site_occupancy
_atom_site_attached_hydrogens
Rh1 Rh3+ 2 a 0 0 0 . 0.5 0
Nb1 Nb5+ 2 a 0 0 0 . 0.5 0
O1 O2- 4 f 0.2999(3) 0.2999(3) 0 . 1. 0
loop_
_atom_site_aniso_label
_atom_site_aniso_type_symbol
_atom_site_aniso_U_11
_atom_site_aniso_U_22
_atom_site_aniso_U_33
_atom_site_aniso_U_12
_atom_site_aniso_U_13
_atom_site_aniso_U_23
Rh1 Rh3+ 0.00575(5) 0.00575(5) 0.0074(1) 0.00155(5) 0 0
Nb1 Nb5+ 0.00575(5) 0.005785(5) 0.0074(1) 0.00155(5) 0 0
O1 O2- 0.0058(6) 0.0058(6) 0.0060(9) -.0021(6) 0 0
#End of TTdata_86826-ICSD