
#(C) 2018 by FIZ Karlsruhe - Leibniz Institute for Information Infrastructure.  All rights reserved.
data_157744-ICSD
_database_code_ICSD 157744
_audit_creation_date 2008-02-01
_chemical_name_systematic 'Silicon oxide'
_chemical_formula_structural 'Si O2'
_chemical_formula_sum 'O2 Si1'
_chemical_name_mineral 'Zeolite SSZ-73'
_exptl_crystal_density_diffrn 1.58
_publ_section_title

;
The synthesis and structure of SSZ-73: an all-silica zeolite with an unusual
framework topology
;
loop_
_citation_id
_citation_journal_full
_citation_year
_citation_journal_volume
_citation_page_first
_citation_page_last
_citation_journal_id_ASTM
primary 'Chemistry of Materials' 2007 19 3924 3932 CMATEX
loop_
_publ_author_name
'Wragg, D.S.'
'Morris, R.'
'Burton, A.W.'
'Zones, S.I.'
'Ong, K.'
'Lee, G.'
_cell_length_a 14.1039(1)
_cell_length_b 14.1039(1)
_cell_length_c 10.1875(1)
_cell_angle_alpha 90.
_cell_angle_beta 90.
_cell_angle_gamma 90.
_cell_volume 2026.5
_cell_formula_units_Z 32
_symmetry_space_group_name_H-M 'I 4/m m m'
_symmetry_Int_Tables_number 139
_refine_ls_R_factor_all 0.0812
loop_
_symmetry_equiv_pos_site_id
_symmetry_equiv_pos_as_xyz
1 'y, x, -z'
2 '-y, -x, -z'
3 '-y, x, -z'
4 'y, -x, -z'
5 '-x, y, -z'
6 'x, -y, -z'
7 'x, y, -z'
8 '-x, -y, -z'
9 '-y, -x, z'
10 'y, x, z'
11 'y, -x, z'
12 '-y, x, z'
13 'x, -y, z'
14 '-x, y, z'
15 '-x, -y, z'
16 'x, y, z'
17 'y+1/2, x+1/2, -z+1/2'
18 '-y+1/2, -x+1/2, -z+1/2'
19 '-y+1/2, x+1/2, -z+1/2'
20 'y+1/2, -x+1/2, -z+1/2'
21 '-x+1/2, y+1/2, -z+1/2'
22 'x+1/2, -y+1/2, -z+1/2'
23 'x+1/2, y+1/2, -z+1/2'
24 '-x+1/2, -y+1/2, -z+1/2'
25 '-y+1/2, -x+1/2, z+1/2'
26 'y+1/2, x+1/2, z+1/2'
27 'y+1/2, -x+1/2, z+1/2'
28 '-y+1/2, x+1/2, z+1/2'
29 'x+1/2, -y+1/2, z+1/2'
30 '-x+1/2, y+1/2, z+1/2'
31 '-x+1/2, -y+1/2, z+1/2'
32 'x+1/2, y+1/2, z+1/2'
loop_
_atom_type_symbol
_atom_type_oxidation_number
Si4+ 4
O2- -2
loop_
_atom_site_label
_atom_site_type_symbol
_atom_site_symmetry_multiplicity
_atom_site_Wyckoff_symbol
_atom_site_fract_x
_atom_site_fract_y
_atom_site_fract_z
_atom_site_B_iso_or_equiv
_atom_site_occupancy
_atom_site_attached_hydrogens
Si1 Si4+ 16 l 0.2658(2) 0.1098(2) 0 0.005 1. 0
Si2 Si4+ 16 k 0.6090(1) 0.8910(1) 0.75 0.005 1. 0
O1 O2- 8 i 0.2386(5) 0 0 0.005 1. 0
O2 O2- 32 o 0.3255(2) 0.8623(2) 0.8735(4) 0.005 1. 0
O3 O2- 16 n 0.5 0.8739(3) 0.7893(5) 0.005 1. 0
O4 O2- 8 h 0.1685(4) 0.8316(4) 0 0.005 1. 0
#End of TTdata_157744-ICSD